TITLE = "All Particles Coordinates"
Variables= "X","Y","Z","Vx","Vy","Vz","ax","ay","az"
ZONE
T="WallPariticles"
I = 10800, F = POINT
       -12.8853       -12.8853       -13.1037              0              0              0              0              0              0
       -12.4485       -12.4485       -13.1037              0              0              0              0              0              0
       -12.8853       -12.0117       -13.1037              0              0              0              0              0              0
       -12.4485       -11.5749       -13.1037              0              0              0              0              0              0
       -12.8853       -11.1382       -13.1037              0              0              0              0              0              0
       -12.4485       -10.7014       -13.1037              0              0              0              0              0              0
       -12.8853       -10.2646       -13.1037              0              0              0              0              0              0
       -12.4485       -9.82778       -13.1037              0              0              0              0              0              0
       -12.8853       -9.39099       -13.1037              0              0              0              0              0              0
       -12.4485        -8.9542       -13.1037              0              0              0              0              0              0
       -12.8853       -8.51741       -13.1037              0              0              0              0              0              0
       -12.4485       -8.08062       -13.1037              0              0              0              0              0              0
       -12.8853       -7.64383       -13.1037              0              0              0              0              0              0
       -12.4485       -7.20704       -13.1037              0              0              0              0              0              0
       -12.8853       -6.77025       -13.1037              0              0              0              0              0              0
       -12.4485       -6.33346       -13.1037              0              0              0              0              0              0
       -12.8853       -5.89667       -13.1037              0              0              0              0              0              0
       -12.4485       -5.45988       -13.1037              0              0              0              0              0              0
       -12.8853       -5.02309       -13.1037              0              0              0              0              0              0
       -12.4485        -4.5863       -13.1037              0              0              0              0              0              0
       -12.8853       -4.14951       -13.1037              0              0              0              0              0              0
       -12.4485       -3.71272       -13.1037              0              0              0              0              0              0
       -12.8853       -3.27593       -13.1037              0              0              0              0              0              0
       -12.4485       -2.83914       -13.1037              0              0              0              0              0              0
       -12.8853       -2.40235       -13.1037              0              0              0              0              0              0
       -12.4485       -1.96556       -13.1037              0              0              0              0              0              0
       -12.8853       -1.52877       -13.1037              0              0              0              0              0              0
       -12.4485       -1.09198       -13.1037              0              0              0              0              0              0
       -12.8853      -0.655185       -13.1037              0              0              0              0              0              0
       -12.4485      -0.218395       -13.1037              0              0              0              0              0              0
       -12.8853       0.218395       -13.1037              0              0              0              0              0              0
       -12.4485       0.655185       -13.1037              0              0              0              0              0              0
       -12.8853        1.09198       -13.1037              0              0              0              0              0              0
       -12.4485        1.52877       -13.1037              0              0              0              0              0              0
       -12.8853        1.96556       -13.1037              0              0              0              0              0              0
       -12.4485        2.40235       -13.1037              0              0              0              0              0              0
       -12.8853        2.83914       -13.1037              0              0              0              0              0              0
       -12.4485        3.27593       -13.1037              0              0              0              0              0              0
       -12.8853        3.71272       -13.1037              0              0              0              0              0              0
       -12.4485        4.14951       -13.1037              0              0              0              0              0              0
       -12.8853         4.5863       -13.1037              0              0              0              0              0              0
       -12.4485        5.02309       -13.1037              0              0              0              0              0              0
       -12.8853        5.45988       -13.1037              0              0              0              0              0              0
       -12.4485        5.89667       -13.1037              0              0              0              0              0              0
       -12.8853        6.33346       -13.1037              0              0              0              0              0              0
       -12.4485        6.77025       -13.1037              0              0              0              0              0              0
       -12.8853        7.20704       -13.1037              0              0              0              0              0              0
       -12.4485        7.64383       -13.1037              0              0              0              0              0              0
       -12.8853        8.08062       -13.1037              0              0              0              0              0              0
       -12.4485        8.51741       -13.1037              0              0              0              0              0              0
       -12.8853         8.9542       -13.1037              0              0              0              0              0              0
       -12.4485        9.39099       -13.1037              0              0              0              0              0              0
       -12.8853        9.82778       -13.1037              0              0              0              0              0              0
       -12.4485        10.2646       -13.1037              0              0              0              0              0              0
       -12.8853        10.7014       -13.1037              0              0              0              0              0              0
       -12.4485        11.1382       -13.1037              0              0              0              0              0              0
       -12.8853        11.5749       -13.1037              0              0              0              0              0              0
       -12.4485        12.0117       -13.1037              0              0              0              0              0              0
       -12.8853        12.4485       -13.1037              0              0              0              0              0              0
       -12.4485        12.8853       -13.1037              0              0              0              0              0              0
       -12.0117       -12.8853       -13.1037              0              0              0              0              0              0
       -11.5749       -12.4485       -13.1037              0              0              0              0              0              0
       -12.0117       -12.0117       -13.1037              0              0              0              0              0              0
       -11.5749       -11.5749       -13.1037              0              0              0              0              0              0
       -12.0117       -11.1382       -13.1037              0              0              0              0              0              0
       -11.5749       -10.7014       -13.1037              0              0              0              0              0              0
       -12.0117       -10.2646       -13.1037              0              0              0              0              0              0
       -11.5749       -9.82778       -13.1037              0              0              0              0              0              0
       -12.0117       -9.39099       -13.1037              0              0              0              0              0              0
       -11.5749        -8.9542       -13.1037              0              0              0              0              0              0
       -12.0117       -8.51741       -13.1037              0              0              0              0              0              0
       -11.5749       -8.08062       -13.1037              0              0              0              0              0              0
       -12.0117       -7.64383       -13.1037              0              0              0              0              0              0
       -11.5749       -7.20704       -13.1037              0              0              0              0              0              0
       -12.0117       -6.77025       -13.1037              0              0              0              0              0              0
       -11.5749       -6.33346       -13.1037              0              0              0              0              0              0
       -12.0117       -5.89667       -13.1037              0              0              0              0              0              0
       -11.5749       -5.45988       -13.1037              0              0              0              0              0              0
       -12.0117       -5.02309       -13.1037              0              0              0              0              0              0
       -11.5749        -4.5863       -13.1037              0              0              0              0              0              0
       -12.0117       -4.14951       -13.1037              0              0              0              0              0              0
       -11.5749       -3.71272       -13.1037              0              0              0              0              0              0
       -12.0117       -3.27593       -13.1037              0              0              0              0              0              0
       -11.5749       -2.83914       -13.1037              0              0              0              0              0              0
       -12.0117       -2.40235       -13.1037              0              0              0              0              0              0
       -11.5749       -1.96556       -13.1037              0              0              0              0              0              0
       -12.0117       -1.52877       -13.1037              0              0              0              0              0              0
       -11.5749       -1.09198       -13.1037              0              0              0              0              0              0
       -12.0117      -0.655185       -13.1037              0              0              0              0              0              0
       -11.5749      -0.218395       -13.1037              0              0              0              0              0              0
       -12.0117       0.218395       -13.1037              0              0              0              0              0              0
       -11.5749       0.655185       -13.1037              0              0              0              0              0              0
       -12.0117        1.09198       -13.1037              0              0              0              0              0              0
       -11.5749        1.52877       -13.1037              0              0              0              0              0              0
       -12.0117        1.96556       -13.1037              0              0              0              0              0              0
       -11.5749        2.40235       -13.1037              0              0              0              0              0              0
       -12.0117        2.83914       -13.1037              0              0              0              0              0              0
       -11.5749        3.27593       -13.1037              0              0              0              0              0              0
       -12.0117        3.71272       -13.1037              0              0              0              0              0              0
       -11.5749        4.14951       -13.1037              0              0              0              0              0              0
       -12.0117         4.5863       -13.1037              0              0              0              0              0              0
       -11.5749        5.02309       -13.1037              0              0              0              0              0              0
       -12.0117        5.45988       -13.1037              0              0              0              0              0              0
       -11.5749        5.89667       -13.1037              0              0              0              0              0              0
       -12.0117        6.33346       -13.1037              0              0              0              0              0              0
       -11.5749        6.77025       -13.1037              0              0              0              0              0              0
       -12.0117        7.20704       -13.1037              0              0              0              0              0              0
       -11.5749        7.64383       -13.1037              0              0              0              0              0              0
       -12.0117        8.08062       -13.1037              0              0              0              0              0              0
       -11.5749        8.51741       -13.1037              0              0              0              0              0              0
       -12.0117         8.9542       -13.1037              0              0              0              0              0              0
       -11.5749        9.39099       -13.1037              0              0              0              0              0              0
       -12.0117        9.82778       -13.1037              0              0              0              0              0              0
       -11.5749        10.2646       -13.1037              0              0              0              0              0              0
       -12.0117        10.7014       -13.1037              0              0              0              0              0              0
       -11.5749        11.1382       -13.1037              0              0              0              0              0              0
       -12.0117        11.5749       -13.1037              0              0              0              0              0              0
       -11.5749        12.0117       -13.1037              0              0              0              0              0              0
       -12.0117        12.4485       -13.1037              0              0              0              0              0              0
       -11.5749        12.8853       -13.1037              0              0              0              0              0              0
       -11.1382       -12.8853       -13.1037              0              0              0              0              0              0
       -10.7014       -12.4485       -13.1037              0              0              0              0              0              0
       -11.1382       -12.0117       -13.1037              0              0              0              0              0              0
       -10.7014       -11.5749       -13.1037              0              0              0              0              0              0
       -11.1382       -11.1382       -13.1037              0              0              0              0              0              0
       -10.7014       -10.7014       -13.1037              0              0              0              0              0              0
       -11.1382       -10.2646       -13.1037              0              0              0              0              0              0
       -10.7014       -9.82778       -13.1037              0              0              0              0              0              0
       -11.1382       -9.39099       -13.1037              0              0              0              0              0              0
       -10.7014        -8.9542       -13.1037              0              0              0              0              0              0
       -11.1382       -8.51741       -13.1037              0              0              0              0              0              0
       -10.7014       -8.08062       -13.1037              0              0              0              0              0              0
       -11.1382       -7.64383       -13.1037              0              0              0              0              0              0
       -10.7014       -7.20704       -13.1037              0              0              0              0              0              0
       -11.1382       -6.77025       -13.1037              0              0              0              0              0              0
       -10.7014       -6.33346       -13.1037              0              0              0              0              0              0
       -11.1382       -5.89667       -13.1037              0              0              0              0              0              0
       -10.7014       -5.45988       -13.1037              0              0              0              0              0              0
       -11.1382       -5.02309       -13.1037              0              0              0              0              0              0
       -10.7014        -4.5863       -13.1037              0              0              0              0              0              0
       -11.1382       -4.14951       -13.1037              0              0              0              0              0              0
       -10.7014       -3.71272       -13.1037              0              0              0              0              0              0
       -11.1382       -3.27593       -13.1037              0              0              0              0              0              0
       -10.7014       -2.83914       -13.1037              0              0              0              0              0              0
       -11.1382       -2.40235       -13.1037              0              0              0              0              0              0
       -10.7014       -1.96556       -13.1037              0              0              0              0              0              0
       -11.1382       -1.52877       -13.1037              0              0              0              0              0              0
       -10.7014       -1.09198       -13.1037              0              0              0              0              0              0
       -11.1382      -0.655185       -13.1037              0              0              0              0              0              0
       -10.7014      -0.218395       -13.1037              0              0              0              0              0              0
       -11.1382       0.218395       -13.1037              0              0              0              0              0              0
       -10.7014       0.655185       -13.1037              0              0              0              0              0              0
       -11.1382        1.09198       -13.1037              0              0              0              0              0              0
       -10.7014        1.52877       -13.1037              0              0              0              0              0              0
       -11.1382        1.96556       -13.1037              0              0              0              0              0              0
       -10.7014        2.40235       -13.1037              0              0              0              0              0              0
       -11.1382        2.83914       -13.1037              0              0              0              0              0              0
       -10.7014        3.27593       -13.1037              0              0              0              0              0              0
       -11.1382        3.71272       -13.1037              0              0              0              0              0              0
       -10.7014        4.14951       -13.1037              0              0              0              0              0              0
       -11.1382         4.5863       -13.1037              0              0              0              0              0              0
       -10.7014        5.02309       -13.1037              0              0              0              0              0              0
       -11.1382        5.45988       -13.1037              0              0              0              0              0              0
       -10.7014        5.89667       -13.1037              0              0              0              0              0              0
       -11.1382        6.33346       -13.1037              0              0              0              0              0              0
       -10.7014        6.77025       -13.1037              0              0              0              0              0              0
       -11.1382        7.20704       -13.1037              0              0              0              0              0              0
       -10.7014        7.64383       -13.1037              0              0              0              0              0              0
       -11.1382        8.08062       -13.1037              0              0              0              0              0              0
       -10.7014        8.51741       -13.1037              0              0              0              0              0              0
       -11.1382         8.9542       -13.1037              0              0              0              0              0              0
       -10.7014        9.39099       -13.1037              0              0              0              0              0              0
       -11.1382        9.82778       -13.1037              0              0              0              0              0              0
       -10.7014        10.2646       -13.1037              0              0              0              0              0              0
       -11.1382        10.7014       -13.1037              0              0              0              0              0              0
       -10.7014        11.1382       -13.1037              0              0              0              0              0              0
       -11.1382        11.5749       -13.1037              0              0              0              0              0              0
       -10.7014        12.0117       -13.1037              0              0              0              0              0              0
       -11.1382        12.4485       -13.1037              0              0              0              0              0              0
       -10.7014        12.8853       -13.1037              0              0              0              0              0              0
       -10.2646       -12.8853       -13.1037              0              0              0              0              0              0
       -9.82778       -12.4485       -13.1037              0              0              0              0              0              0
       -10.2646       -12.0117       -13.1037              0              0              0              0              0              0
       -9.82778       -11.5749       -13.1037              0              0              0              0              0              0
       -10.2646       -11.1382       -13.1037              0              0              0              0              0              0
       -9.82778       -10.7014       -13.1037              0              0              0              0              0              0
       -10.2646       -10.2646       -13.1037              0              0              0              0              0              0
       -9.82778       -9.82778       -13.1037              0              0              0              0              0              0
       -10.2646       -9.39099       -13.1037              0              0              0              0              0              0
       -9.82778        -8.9542       -13.1037              0              0              0              0              0              0
       -10.2646       -8.51741       -13.1037              0              0              0              0              0              0
       -9.82778       -8.08062       -13.1037              0              0              0              0              0              0
       -10.2646       -7.64383       -13.1037              0              0              0              0              0              0
       -9.82778       -7.20704       -13.1037              0              0              0              0              0              0
       -10.2646       -6.77025       -13.1037              0              0              0              0              0              0
       -9.82778       -6.33346       -13.1037              0              0              0              0              0              0
       -10.2646       -5.89667       -13.1037              0              0              0              0              0              0
       -9.82778       -5.45988       -13.1037              0              0              0              0              0              0
       -10.2646       -5.02309       -13.1037              0              0              0              0              0              0
       -9.82778        -4.5863       -13.1037              0              0              0              0              0              0
       -10.2646       -4.14951       -13.1037              0              0              0              0              0              0
       -9.82778       -3.71272       -13.1037              0              0              0              0              0              0
       -10.2646       -3.27593       -13.1037              0              0              0              0              0              0
       -9.82778       -2.83914       -13.1037              0              0              0              0              0              0
       -10.2646       -2.40235       -13.1037              0              0              0              0              0              0
       -9.82778       -1.96556       -13.1037              0              0              0              0              0              0
       -10.2646       -1.52877       -13.1037              0              0              0              0              0              0
       -9.82778       -1.09198       -13.1037              0              0              0              0              0              0
       -10.2646      -0.655185       -13.1037              0              0              0              0              0              0
       -9.82778      -0.218395       -13.1037              0              0              0              0              0              0
       -10.2646       0.218395       -13.1037              0              0              0              0              0              0
       -9.82778       0.655185       -13.1037              0              0              0              0              0              0
       -10.2646        1.09198       -13.1037              0              0              0              0              0              0
       -9.82778        1.52877       -13.1037              0              0              0              0              0              0
       -10.2646        1.96556       -13.1037              0              0              0              0              0              0
       -9.82778        2.40235       -13.1037              0              0              0              0              0              0
       -10.2646        2.83914       -13.1037              0              0              0              0              0              0
       -9.82778        3.27593       -13.1037              0              0              0              0              0              0
       -10.2646        3.71272       -13.1037              0              0              0              0              0              0